1
Snapshot, step: 0 box: inf
Ar       -1.000000000     0.000000000     0.000000000     1.414213562     0.000000000     0.000000000
108
Snapshot, step: 0 box: 4.93242414866094 4.93242414866094 4.93242414866094
Ar        0.000000000     0.000000000     0.000000000     2.465984116     0.429277986     1.581755208
Ar        0.822070691     0.822070691     0.000000000     3.149293471     2.532052266    -1.221200809
Ar        0.000000000     0.822070691     0.822070691     1.299579930    -0.361038024     0.031319203
Ar        0.822070691     0.000000000     0.822070691     0.526494940     0.062269071     2.263194035
Ar        0.000000000     0.000000000     1.644141383     1.028671710     0.030215100     0.815283714
Ar        0.822070691     0.822070691     1.644141383     0.416263176     1.996859788    -0.114759208
Ar        0.000000000     0.822070691     2.466212074     0.386734037    -1.368057052    -3.479184158
Ar        0.822070691     0.000000000     2.466212074     0.874740906     1.094586286    -0.884285850
Ar        0.000000000     0.000000000     3.288282766     3.190651675    -2.228239353     0.244802652
Ar        0.822070691     0.822070691     3.288282766    -0.330122673     2.052316799     2.284811103
Ar        0.000000000     0.822070691     4.110353457     0.160148871     0.397759762    -1.092959256
Ar        0.822070691     0.000000000     4.110353457    -2.900356061    -0.642699776     0.403277937
Ar        0.000000000     1.644141383     0.000000000     1.701107665     1.578856994    -0.375805375
Ar        0.822070691     2.466212074     0.000000000    -0.495087191    -1.646712793    -1.855643980
Ar        0.000000000     2.466212074     0.822070691    -2.506961970     2.651302182    -0.551096701
Ar        0.822070691     1.644141383     0.822070691    -0.689646803    -1.939390609     1.293368871
Ar        0.000000000     1.644141383     1.644141383    -2.374593098    -0.448999504    -1.103965804
Ar        0.822070691     2.466212074     1.644141383     0.492538744    -0.876124202    -1.512605997
Ar        0.000000000     2.466212074     2.466212074    -0.102274545     0.469652065     0.274549720
Ar        0.822070691     1.644141383     2.466212074     0.371550330    -1.053123071    -0.340574321
Ar        0.000000000     1.644141383     3.288282766    -1.025520387    -0.659381259    -0.986001464
Ar        0.822070691     2.466212074     3.288282766    -2.535639606     0.110106044    -0.396518018
Ar        0.000000000     2.466212074     4.110353457    -2.397951591     0.519019207    -1.120920689
Ar        0.822070691     1.644141383     4.110353457     0.012547737     0.900637007     0.364062581
Ar        0.000000000     3.288282766     0.000000000     1.570862984    -1.913640394     0.755783586
Ar        0.822070691     4.110353457     0.000000000    -1.043217332    -1.391990047    -0.650256174
Ar        0.000000000     4.110353457     0.822070691    -0.508342059    -0.063659770    -1.490419915
Ar        0.822070691     3.288282766     0.822070691     1.228987954     0.523146490    -2.022194604
Ar        0.000000000     3.288282766     1.644141383     2.070764573     2.572650642     1.868413298
Ar        0.822070691     4.110353457     1.644141383    -0.319720560    -1.678524734     1.690252432
Ar        0.000000000     4.110353457     2.466212074    -0.639639156     1.607610306     0.477687517
Ar        0.822070691     3.288282766     2.466212074     1.337626767     0.366526083     1.191745075
Ar        0.000000000     3.288282766     3.288282766    -0.046843174     2.414994699     0.361095115
Ar        0.822070691     4.110353457     3.288282766     0.514158109     2.554396498    -1.752097554
Ar        0.000000000     4.110353457     4.110353457    -1.882485069     1.244993906    -1.501845973
Ar        0.822070691     3.288282766     4.110353457     2.723304912    -0.736857171    -0.891866081
Ar        1.644141383     0.000000000     0.000000000     2.693671832     1.977422274     2.855428980
Ar        2.466212074     0.822070691     0.000000000     1.236465554    -1.378274210     2.916339748
Ar        1.644141383     0.822070691     0.822070691    -0.445936439     1.005769695     1.536635984
Ar        2.466212074     0.000000000     0.822070691    -0.284017921     0.735826834     1.500746263
Ar        1.644141383     0.000000000     1.644141383     0.477525330    -1.719577345     0.606604101
Ar        2.466212074     0.822070691     1.644141383     1.838811387    -1.139454801    -0.035194130
Ar        1.644141383     0.822070691     2.466212074    -0.685461390     2.505836727     1.142624370
Ar        2.466212074     0.000000000     2.466212074     0.522000122    -1.247428225     0.951971075
Ar        1.644141383     0.000000000     3.288282766    -1.028203254    -0.098531333    -0.731931606
Ar        2.466212074     0.822070691     3.288282766     0.907434198     0.682106019    -0.119259509
Ar        1.644141383     0.822070691     4.110353457     0.505585016    -1.710493202    -1.957729870
Ar        2.466212074     0.000000000     4.110353457     0.567755378     0.094697582     1.089226312
Ar        1.644141383     1.644141383     0.000000000     3.353138909     1.209287716    -1.128836341
Ar        2.466212074     2.466212074     0.000000000     1.538786313    -2.029829702    -0.482216225
Ar        1.644141383     2.466212074     0.822070691    -0.159679331     2.311062947    -0.887997016
Ar        2.466212074     1.644141383     0.822070691    -1.246169832    -0.285226010    -0.771528352
Ar        1.644141383     1.644141383     1.644141383     1.552571176    -1.691678010    -1.465082905
Ar        2.466212074     2.466212074     1.644141383    -0.689282454    -0.857821038     2.944235957
Ar        1.644141383     2.466212074     2.466212074     1.298623249    -0.018684013    -1.576808838
Ar        2.466212074     1.644141383     2.466212074     1.148076168    -1.577445351    -2.034414319
Ar        1.644141383     1.644141383     3.288282766     1.640548130     0.310032095     1.498814807
Ar        2.466212074     2.466212074     3.288282766     0.394844704     1.083687537    -0.753683736
Ar        1.644141383     2.466212074     4.110353457    -1.543951835     0.832575534    -0.972048964
Ar        2.466212074     1.644141383     4.110353457    -1.050009268    -0.796918934     0.204278544
Ar        1.644141383     3.288282766     0.000000000    -0.569160236    -2.114439142    -0.743069288
Ar        2.466212074     4.110353457     0.000000000    -3.248009614     0.751807682    -2.116505527
Ar        1.644141383     4.110353457     0.822070691    -1.644462641    -0.069392117    -0.880557169
Ar        2.466212074     3.288282766     0.822070691     2.149238682    -1.996798508     0.561912927
Ar        1.644141383     3.288282766     1.644141383    -0.118181607    -1.818013477     0.929082558
Ar        2.466212074     4.110353457     1.644141383    -0.307714226     0.961825770     1.359306298
Ar        1.644141383     4.110353457     2.466212074     3.038011216     1.771090213    -0.349803756
Ar        2.466212074     3.288282766     2.466212074    -0.404918185     1.431659644     1.118219037
Ar        1.644141383     3.288282766     3.288282766     0.855414037    -2.461230130     0.144371887
Ar        2.466212074     4.110353457     3.288282766    -1.119482365     0.256985561     0.038582271
Ar        1.644141383     4.110353457     4.110353457     1.242389903     0.310427033     1.306033095
Ar        2.466212074     3.288282766     4.110353457    -0.730264681    -1.497528662    -0.408367085
Ar        3.288282766     0.000000000     0.000000000    -0.086279749     0.399177301     3.416803769
Ar        4.110353457     0.822070691     0.000000000    -0.122443805    -1.514006277    -0.316558241
Ar        3.288282766     0.822070691     0.822070691    -0.726219168     0.545815046    -2.028719489
Ar        4.110353457     0.000000000     0.822070691     0.028764337     0.080128408     0.511944719
Ar        3.288282766     0.000000000     1.644141383    -0.917839057    -0.485084332    -1.861437528
Ar        4.110353457     0.822070691     1.644141383    -0.768813306    -0.922060694     0.775427627
Ar        3.288282766     0.822070691     2.466212074    -1.718690351     0.975306719     2.320816149
Ar        4.110353457     0.000000000     2.466212074    -3.028162592     0.466681271     1.149235162
Ar        3.288282766     0.000000000     3.288282766    -0.975332086    -0.713431804    -0.011185827
Ar        4.110353457     0.822070691     3.288282766    -0.488621714    -0.586957543    -2.222469804
Ar        3.288282766     0.822070691     4.110353457     1.589392839     1.402941037    -0.986313823
Ar        4.110353457     0.000000000     4.110353457    -2.163264653     0.602537765    -0.645868788
Ar        3.288282766     1.644141383     0.000000000     0.141528191    -0.601739502     1.170200868
Ar        4.110353457     2.466212074     0.000000000     0.933680672    -1.183919868    -1.803119100
Ar        3.288282766     2.466212074     0.822070691    -2.330228438     0.730524775    -1.524395331
Ar        4.110353457     1.644141383     0.822070691    -0.788153647    -0.998657814     0.103902501
Ar        3.288282766     1.644141383     1.644141383    -2.836564018     0.126374026     0.929962936
Ar        4.110353457     2.466212074     1.644141383     0.064818561    -0.589641828     0.318804746
Ar        3.288282766     2.466212074     2.466212074     0.509940787    -4.117248844     2.982038663
Ar        4.110353457     1.644141383     2.466212074     0.497111172    -1.079040873    -0.381002205
Ar        3.288282766     1.644141383     3.288282766     0.645638628    -0.310520354    -2.730724524
Ar        4.110353457     2.466212074     3.288282766     2.896513114    -0.302548213     1.641130861
Ar        3.288282766     2.466212074     4.110353457    -1.053591850     2.057472477     0.589559393
Ar        4.110353457     1.644141383     4.110353457     0.810579010    -1.641984493     1.914793129
Ar        3.288282766     3.288282766     0.000000000     0.926614616     1.721391569    -0.720813707
Ar        4.110353457     4.110353457     0.000000000    -0.751197866     3.157351011    -1.339763658
Ar        3.288282766     4.110353457     0.822070691    -0.256704523     1.485012486     0.319270184
Ar        4.110353457     3.288282766     0.822070691     0.773478613    -0.716551737     0.709518344
Ar        3.288282766     3.288282766     1.644141383    -1.934132773     2.231944506     0.009902853
Ar        4.110353457     4.110353457     1.644141383    -1.036579873     0.810777660    -0.480976948
Ar        3.288282766     4.110353457     2.466212074    -1.973871976    -2.073980337     1.173402749
Ar        4.110353457     3.288282766     2.466212074    -0.290557161    -0.335737612     1.723629806
Ar        3.288282766     3.288282766     3.288282766    -1.676622531    -1.191200006    -0.372298830
Ar        4.110353457     4.110353457     3.288282766     0.073315493    -0.204575656    -0.231876148
Ar        3.288282766     4.110353457     4.110353457    -0.150199795    -0.297911937    -0.851956634
Ar        4.110353457     3.288282766     4.110353457    -1.226902460     0.249235592    -1.097443570
