ITEM: TIMESTEP
0
ITEM: NUMBER OF ATOMS
25
ITEM: BOX BOUNDS pp pp pp
0.0000000000000000e+00 5.9761430466719681e+00
0.0000000000000000e+00 5.9761430466719681e+00
-5.0000000000000000e-01 5.0000000000000000e-01
ITEM: ATOMS id x y vx vy ix iy 
25 0.488677 0.345903 1.04328 -0.660548 2 1 
18 1.97511 0.0781065 0.311657 -0.667623 -2 1 
20 3.21609 0.243429 -0.502904 -0.677577 -1 -2 
9 4.35564 0.495838 -0.00998688 0.342961 1 0 
1 1.41054 1.0564 1.8186 1.70617 0 0 
2 2.52104 1.01044 0.919351 -2.04693 0 0 
21 3.58647 1.38391 -0.919949 -0.740073 1 3 
5 5.14752 1.32882 -1.34658 0.91412 -1 0 
7 0.269098 1.66451 -1.15903 -0.452835 0 -1 
13 4.52697 2.12659 -0.528379 -0.696722 0 -1 
22 0.842023 2.53062 -0.487572 1.20261 1 1 
12 2.42322 2.5099 -0.272663 0.61752 0 0 
14 3.47471 2.62228 1.32271 0.77897 1 -1 
23 5.29004 2.8693 -1.09562 -0.376365 -2 2 
17 1.65436 3.22118 0.374952 0.522581 1 0 
10 2.50115 3.68218 -0.671391 0.0176972 -1 1 
16 3.98545 3.62841 -0.900634 -0.605028 0 0 
8 0.428247 3.82641 -0.0634221 -0.16893 0 0 
19 3.23402 4.447 0.622752 0.99885 -2 1 
3 4.99643 3.88874 0.708588 0.199875 -1 -1 
4 1.00217 4.92641 -0.403821 -0.633702 -1 -2 
11 1.96157 4.52941 0.115003 0.551646 2 1 
6 5.91267 5.11491 -0.343402 -0.377321 -1 0 
15 3.92514 5.3548 0.233658 0.849736 -1 0 
24 5.30007 5.88609 1.2348 -0.599079 1 0 
ITEM: TIMESTEP
2
ITEM: NUMBER OF ATOMS
25
ITEM: BOX BOUNDS pp pp pp
0.0000000000000000e+00 5.9761430466719681e+00
0.0000000000000000e+00 5.9761430466719681e+00
-5.0000000000000000e-01 5.0000000000000000e-01
ITEM: ATOMS id x y vx vy ix iy 
25 0.490763 0.344582 1.04328 -0.660548 2 1 
18 1.97573 0.076765 0.307909 -0.674006 -2 1 
20 3.2151 0.242057 -0.486721 -0.6954 -1 -2 
9 4.35561 0.496525 -0.0109993 0.34359 1 0 
1 1.41409 1.05981 1.72466 1.71038 0 0 
2 2.52296 1.00636 1.00049 -2.02648 0 0 
21 3.58463 1.38243 -0.919949 -0.740073 1 3 
5 5.14485 1.33062 -1.32176 0.882234 -1 0 
7 0.266768 1.66358 -1.17066 -0.47042 0 -1 
13 4.52588 2.12522 -0.561474 -0.672899 0 -1 
22 0.841051 2.53304 -0.484353 1.21306 1 1 
12 2.42267 2.51112 -0.272719 0.60381 0 0 
14 3.47737 2.62384 1.33603 0.780394 1 -1 
23 5.28787 2.86854 -1.08383 -0.380575 -2 2 
17 1.65503 3.2222 0.287386 0.49697 1 0 
10 2.4999 3.68221 -0.573932 0.0163283 -1 1 
16 3.98363 3.62719 -0.917677 -0.61071 0 0 
8 0.42812 3.82607 -0.0634221 -0.16893 0 0 
19 3.23527 4.44901 0.630657 1.00913 -2 1 
3 4.99786 3.88916 0.723072 0.216789 -1 -1 
4 1.00135 4.92515 -0.41747 -0.626504 -1 -2 
11 1.9618 4.53054 0.111711 0.580423 2 1 
6 5.91202 5.1141 -0.309748 -0.427026 -1 0 
15 3.92561 5.3565 0.23403 0.849284 -1 0 
24 5.3025 5.88494 1.19549 -0.548821 1 0 
ITEM: TIMESTEP
4
ITEM: NUMBER OF ATOMS
25
ITEM: BOX BOUNDS pp pp pp
0.0000000000000000e+00 5.9761430466719681e+00
0.0000000000000000e+00 5.9761430466719681e+00
-5.0000000000000000e-01 5.0000000000000000e-01
ITEM: ATOMS id x y vx vy ix iy 
25 0.49285 0.343261 1.04328 -0.660548 2 1 
18 1.97634 0.0754104 0.303941 -0.680728 -2 1 
20 3.21414 0.240647 -0.469201 -0.714705 -1 -2 
9 4.35559 0.497212 -0.0116745 0.344009 1 0 
1 1.41744 1.06324 1.62939 1.7153 0 0 
2 2.52504 1.00233 1.08171 -2.00478 0 0 
21 3.58279 1.38095 -0.919949 -0.740073 1 3 
5 5.14223 1.33235 -1.29523 0.8482 -1 0 
7 0.264416 1.66262 -1.18136 -0.486645 0 -1 
13 4.52472 2.1239 -0.596348 -0.647011 0 -1 
22 0.840085 2.53547 -0.482004 1.22222 1 1 
12 2.42213 2.51231 -0.271394 0.589928 0 0 
14 3.48005 2.6254 1.34821 0.781574 1 -1 
23 5.28571 2.86778 -1.07204 -0.384662 -2 2 
17 1.65551 3.22317 0.196557 0.469994 1 0 
10 2.49885 3.68224 -0.473015 0.017398 -1 1 
16 3.98178 3.62596 -0.933226 -0.61587 0 0 
8 0.427993 3.82574 -0.0634221 -0.16893 0 0 
19 3.23654 4.45104 0.637895 1.01865 -2 1 
3 4.99932 3.88961 0.736152 0.233299 -1 -1 
4 1.0005 4.92391 -0.43108 -0.619378 -1 -2 
11 1.96202 4.53173 0.108576 0.609147 2 1 
6 5.91143 5.1132 -0.274704 -0.47876 -1 0 
15 3.92608 5.3582 0.234521 0.84869 -1 0 
24 5.30485 5.88389 1.15441 -0.496315 1 0 
ITEM: TIMESTEP
6
ITEM: NUMBER OF ATOMS
25
ITEM: BOX BOUNDS pp pp pp
0.0000000000000000e+00 5.9761430466719681e+00
0.0000000000000000e+00 5.9761430466719681e+00
-5.0000000000000000e-01 5.0000000000000000e-01
ITEM: ATOMS id x y vx vy ix iy 
25 0.494936 0.34194 1.04328 -0.660548 2 1 
18 1.97694 0.0740419 0.299762 -0.687767 -2 1 
20 3.21322 0.239197 -0.450246 -0.73561 -1 -2 
9 4.35557 0.497901 -0.0120435 0.344238 1 0 
1 1.4206 1.06667 1.53329 1.72091 0 0 
2 2.52729 0.998345 1.16234 -1.98173 0 0 
21 3.58095 1.37947 -0.919869 -0.740044 1 3 
5 5.13967 1.33401 -1.26698 0.812017 -1 0 
7 0.262043 1.66164 -1.1912 -0.501566 0 -1 
13 4.52349 2.12263 -0.633004 -0.619053 0 -1 
22 0.839123 2.53792 -0.480528 1.23011 1 1 
12 2.42159 2.51348 -0.268769 0.575899 0 0 
14 3.48276 2.62697 1.35912 0.782185 1 -1 
23 5.28358 2.867 -1.06024 -0.388615 -2 2 
17 1.65581 3.22408 0.103003 0.441924 1 0 
10 2.49801 3.68228 -0.369228 0.0206924 -1 1 
16 3.9799 3.62473 -0.947178 -0.620193 0 0 
8 0.427866 3.8254 -0.0634221 -0.16893 0 0 
19 3.23782 4.45309 0.644526 1.02746 -2 1 
3 5.00081 3.89009 0.747892 0.249403 -1 -1 
4 0.999622 4.92268 -0.444619 -0.61233 -1 -2 
11 1.96224 4.53298 0.10566 0.637706 2 1 
6 5.91092 5.11219 -0.238461 -0.532332 -1 0 
15 3.92655 5.35989 0.23514 0.847945 -1 0 
24 5.30712 5.88295 1.11177 -0.441769 1 0 
ITEM: TIMESTEP
8
ITEM: NUMBER OF ATOMS
25
ITEM: BOX BOUNDS pp pp pp
0.0000000000000000e+00 5.9761430466719681e+00
0.0000000000000000e+00 5.9761430466719681e+00
-5.0000000000000000e-01 5.0000000000000000e-01
ITEM: ATOMS id x y vx vy ix iy 
25 0.497023 0.340618 1.04328 -0.660548 2 1 
18 1.97754 0.0726591 0.295385 -0.695096 -2 1 
20 3.21234 0.237704 -0.429759 -0.758235 -1 -2 
9 4.35554 0.498589 -0.0121445 0.344301 1 0 
1 1.42357 1.07012 1.43687 1.72718 0 0 
2 2.52969 0.994406 1.2415 -1.95729 0 0 
21 3.57911 1.37799 -0.919474 -0.7399 1 3 
5 5.13716 1.33559 -1.23702 0.773704 -1 0 
7 0.259651 1.66062 -1.2002 -0.515241 0 -1 
13 4.52219 2.12142 -0.671428 -0.589036 0 -1 
22 0.838163 2.54039 -0.479928 1.23674 1 1 
12 2.42105 2.51461 -0.264926 0.561754 0 0 
14 3.48549 2.62853 1.36878 0.782151 1 -1 
23 5.28147 2.86622 -1.04846 -0.392422 -2 2 
17 1.65592 3.22494 0.00732358 0.413066 1 0 
10 2.49738 3.68233 -0.263211 0.0259638 -1 1 
16 3.97799 3.62348 -0.959556 -0.623608 0 0 
8 0.427739 3.82506 -0.0634221 -0.16893 0 0 
19 3.23912 4.45515 0.650604 1.03563 -2 1 
3 5.00232 3.8906 0.758358 0.265096 -1 -1 
4 0.998719 4.92146 -0.458055 -0.605367 -1 -2 
11 1.96244 4.53428 0.103022 0.665986 2 1 
6 5.91048 5.11107 -0.201233 -0.587517 -1 0 
15 3.92702 5.36159 0.235895 0.847043 -1 0 
24 5.3093 5.88213 1.06779 -0.385426 1 0 
ITEM: TIMESTEP
10
ITEM: NUMBER OF ATOMS
25
ITEM: BOX BOUNDS pp pp pp
0.0000000000000000e+00 5.9761430466719681e+00
0.0000000000000000e+00 5.9761430466719681e+00
-5.0000000000000000e-01 5.0000000000000000e-01
ITEM: ATOMS id x y vx vy ix iy 
25 0.499109 0.339297 1.04328 -0.660548 2 1 
18 1.97813 0.0712614 0.290823 -0.702686 -2 1 
20 3.2115 0.236163 -0.407638 -0.782708 -1 -2 
9 4.35552 0.499278 -0.0121445 0.344301 1 0 
1 1.42635 1.07358 1.34064 1.73409 0 0 
2 2.53225 0.990517 1.31849 -1.93135 0 0 
21 3.57728 1.37651 -0.918698 -0.739615 1 3 
5 5.13472 1.3371 -1.20537 0.733303 -1 0 
7 0.257242 1.65958 -1.2084 -0.527729 0 -1 
13 4.52081 2.12028 -0.711589 -0.556997 0 -1 
22 0.837203 2.54287 -0.480206 1.24214 1 1 
12 2.42053 2.51572 -0.259952 0.547524 0 0 
14 3.48824 2.6301 1.37722 0.781426 1 -1 
23 5.27938 2.86543 -1.03669 -0.396074 -2 2 
17 1.65584 3.22573 -0.0898267 0.38375 1 0 
10 2.49696 3.68239 -0.15565 0.0329361 -1 1 
16 3.97606 3.62223 -0.970403 -0.626078 0 0 
8 0.427613 3.82472 -0.0634221 -0.16893 0 0 
19 3.24043 4.45723 0.656184 1.04322 -2 1 
3 5.00384 3.89115 0.767617 0.280377 -1 -1 
4 0.99779 4.92025 -0.471353 -0.598498 -1 -2 
11 1.96265 4.53564 0.100715 0.69388 2 1 
6 5.91011 5.10984 -0.163257 -0.644062 -1 0 
15 3.92749 5.36328 0.236794 0.845973 -1 0 
24 5.31139 5.88141 1.02284 -0.327639 1 0 
