LAMMPS (12 Dec 2018)
units real
timestep 1.0

atom_style full
bond_style hybrid morse harmonic
angle_style hybrid class2 harmonic
dihedral_style class2
improper_style class2

read_data system.data
  orthogonal box = (0 0 0) to (25 25 25)
  1 by 1 by 1 MPI processor grid
  reading atoms ...
  1531 atoms
  reading velocities ...
  1531 velocities
  scanning bonds ...
  6 = max bonds/atom
  scanning angles ...
  15 = max angles/atom
  reading bonds ...
  1031 bonds
  reading angles ...
  562 angles
  6 = max # of 1-2 neighbors
  18 = max # of 1-3 neighbors
  78 = max # of 1-4 neighbors
  6 = max # of special neighbors

include "groups.in"
group water type 13 14
1524 atoms in group water
group water_oxygen type 13
508 atoms in group water_oxygen
group mg type 1
1 atoms in group mg
group dummy type 10 11 12
6 atoms in group dummy

include "md.in.settings"
pair_style lj/cut/coul/cut 10.0
pair_modify shift yes mix geometric

pair_coeff 1 1 61.088148372 2.40549623
pair_coeff 2*4 2*4 0.227198 2.86062
pair_coeff 5*8 5*8 0.147842 3.61737
pair_coeff 9 9 0.0360158 2.46093

pair_coeff * 10*12 5.41769E-08 2.180799 2.0

pair_coeff 13 13 0.155354 3.166
pair_coeff 14 14 0.0 0.0

pair_coeff 1 13 0.25338196137 2.46096325153

neigh_modify exclude molecule/intra water
special_bonds lj/coul 0.0 0.0 1.0
  6 = max # of 1-2 neighbors
  18 = max # of 1-3 neighbors
  6 = max # of special neighbors

thermo 100

fix 1 mg nvt temp 343 343 100
fix 2 dummy nvt temp 343 343 10
fix 3 water rigid/nvt molecule temp 343 343 100
508 rigid bodies with 1524 atoms

# Added by PyRETIS:
thermo_style custom step temp press pe ke etotal
thermo 10
dump traj_pyretis all custom 10 traj.lammpstrj id x y z vx vy vz ix iy iz
run 100
Neighbor list info ...
  update every 1 steps, delay 10 steps, check yes
  max neighbors/atom: 2000, page size: 100000
  master list distance cutoff = 12
  ghost atom cutoff = 12
  binsize = 6, bins = 5 5 5
  1 neighbor lists, perpetual/occasional/extra = 1 0 0
  (1) pair lj/cut/coul/cut, perpetual
      attributes: half, newton on
      pair build: half/bin/newton
      stencil: half/bin/3d/newton
      bin: standard
Per MPI rank memory allocation (min/avg/max) = 15.78 | 15.78 | 15.78 Mbytes
Step Temp Press PotEng KinEng TotEng 
       0    354.83622    1503.3635   -5047.0936    1080.9687   -3966.1248 
      10    354.87936   -1496.9831   -4349.3609    1081.1002   -3268.2607 
      20    353.55139   -2155.9235   -4642.5397    1077.0547   -3565.4851 
      30    346.73993     2692.286   -1634.8362    1056.3043   -578.53193 
      40    355.86763    3461.4022   -1475.5791    1084.1108   -391.46827 
      50    356.02159    522.80391   -3255.0873    1084.5799   -2170.5074 
      60    351.24368   -190.30433   -3918.0104    1070.0245   -2847.9859 
      70    338.50584    55.010487   -3858.1462    1031.2201   -2826.9261 
      80    350.65277    138.91587   -3498.4035    1068.2243   -2430.1791 
      90    341.57213    1222.3388   -3128.2873    1040.5612   -2087.7261
This adds a text line to see how we handle it.
     100    337.38405    343.12519   -3484.1554    1027.8027   -2456.3527 
Loop time of 0.733025 on 1 procs for 100 steps with 1531 atoms

Performance: 11.787 ns/day, 2.036 hours/ns, 136.421 timesteps/s
99.4% CPU use with 1 MPI tasks x no OpenMP threads

MPI task timing breakdown:
Section |  min time  |  avg time  |  max time  |%varavg| %total
---------------------------------------------------------------
Pair    | 0.59488    | 0.59488    | 0.59488    |   0.0 | 81.15
Bond    | 0.0043247  | 0.0043247  | 0.0043247  |   0.0 |  0.59
Neigh   | 0.081686   | 0.081686   | 0.081686   |   0.0 | 11.14
Comm    | 0.0037084  | 0.0037084  | 0.0037084  |   0.0 |  0.51
Output  | 0.027029   | 0.027029   | 0.027029   |   0.0 |  3.69
Modify  | 0.020425   | 0.020425   | 0.020425   |   0.0 |  2.79
Other   |            | 0.0009708  |            |       |  0.13

Nlocal:    1531 ave 1531 max 1531 min
Histogram: 1 0 0 0 0 0 0 0 0 0
Nghost:    9893 ave 9893 max 9893 min
Histogram: 1 0 0 0 0 0 0 0 0 0
Neighs:    536877 ave 536877 max 536877 min
Histogram: 1 0 0 0 0 0 0 0 0 0

Total # of neighbors = 536877
Ave neighs/atom = 350.671
Ave special neighs/atom = 2.01829
Neighbor list builds = 4
Dangerous builds = 0
undump traj_pyretis
Total wall time: 0:00:00
