       2
 i =        0, time =        0.000, E =        -1.1126307769
  H         1.1500000000        0.0000000000        0.0000000000
  H         1.0500000000        0.9990000000        0.0000000000
       2
 i =        1, time =        0.010, E =        -1.1126473038
  H         1.1498161480        0.0000407579        0.0001631460
  H         1.0501838525        0.9989592419       -0.0001631460
       2
 i =        2, time =        0.020, E =        -1.1126648143
  H         1.1496319302        0.0000851428        0.0003262909
  H         1.0503680720        0.9989148566       -0.0003262907
       2
 i =        3, time =        0.030, E =        -1.1126833272
  H         1.1494473479        0.0001331538        0.0004894334
  H         1.0505526570        0.9988668447       -0.0004894332
       2
 i =        4, time =        0.040, E =        -1.1127028021
  H         1.1492624025        0.0001847902        0.0006525724
  H         1.0507376062        0.9988152071       -0.0006525721
       2
 i =        5, time =        0.050, E =        -1.1127232586
  H         1.1490770954        0.0002400513        0.0008157067
  H         1.0509229181        0.9987599445       -0.0008157062
       2
 i =        6, time =        0.060, E =        -1.1127447026
  H         1.1488914280        0.0002989363        0.0009788352
  H         1.0511085914        0.9987010577       -0.0009788344
       2
 i =        7, time =        0.070, E =        -1.1127671366
  H         1.1487054019        0.0003614443        0.0011419565
  H         1.0512946246        0.9986385475       -0.0011419555
       2
 i =        8, time =        0.080, E =        -1.1127905364
  H         1.1485190182        0.0004275745        0.0013050695
  H         1.0514810164        0.9985724149       -0.0013050682
       2
 i =        9, time =        0.090, E =        -1.1128148944
  H         1.1483322786        0.0004973255        0.0014681730
  H         1.0516677652        0.9985026610       -0.0014681715
       2
 i =       10, time =        0.100, E =        -1.1128402138
  H         1.1481451845        0.0005706966        0.0016312658
  H         1.0518548697        0.9984292868       -0.0016312641
       2
 i =       11, time =        0.110, E =        -1.1128665295
  H         1.1479577372        0.0006476866        0.0017943468
  H         1.0520423284        0.9983522932       -0.0017943448
       2
 i =       12, time =        0.120, E =        -1.1128938049
  H         1.1477699382        0.0007282945        0.0019574148
  H         1.0522301398        0.9982716815       -0.0019574124
       2
 i =       13, time =        0.130, E =        -1.1129220624
  H         1.1475817890        0.0008125191        0.0021204684
  H         1.0524183026        0.9981874527       -0.0021204658
       2
 i =       14, time =        0.140, E =        -1.1129513121
  H         1.1473932909        0.0009003592        0.0022835067
  H         1.0526068153        0.9980996081       -0.0022835037
       2
 i =       15, time =        0.150, E =        -1.1129815165
  H         1.1472044455        0.0009918134        0.0024465283
  H         1.0527956763        0.9980081490       -0.0024465249
       2
 i =       16, time =        0.160, E =        -1.1130126782
  H         1.1470152542        0.0010868806        0.0026095322
  H         1.0529848844        0.9979130766       -0.0026095284
