2
# Step: 0 Box:    5.0000    5.0000    5.0000 
H         1.236660394     0.221886702     0.039161312     0.000879157     0.000641769    -0.000160556
H         1.215709656     0.991894106     0.029496678     0.000382807    -0.000648315     0.001414465
2
# Step: 1 Box:    5.0000    5.0000    5.0000 
H         1.285760285     0.233420499     0.029530889     0.000928134    -0.000357580    -0.000214173
H         1.235607797     0.979990396     0.107691845     0.000332824     0.000350568     0.001467504
2
# Step: 2 Box:    5.0000    5.0000    5.0000 
H         1.336667428     0.210280813     0.017714602     0.000898803    -0.000097505    -0.000151707
H         1.253644789     1.002739346     0.188047688     0.000361481     0.000090357     0.001404539
