2
# Step: 2 box: 1.0 2.0 3.0
X   3.0  3.0  3.0  -3.0  -3.0  -3.0
Y   3.0  3.0  3.0  -3.0  -3.0  -3.0
2
# Step 1 box: 1.0 2.0 3.0
X   2.0  2.0  2.0  -2.0  -2.0  -2.0
Y   2.0  2.0  2.0  -2.0  -2.0  -2.0
2
# Step 0 box: 1.0 2.0 3.0
X   1.0  1.0  1.0  -1.0  -1.0  -1.0
Y   1.0  1.0  1.0  -1.0  -1.0  -1.0
