#     Step Nr.          Time[fs]        Kin.[a.u.]          Temp[K]            Pot.[a.u.]        Cons Qty[a.u.]        UsedTime[s]
         0            0.000000         0.004750225       500.000172110       -15.906282000       -15.901531775         0.000000000
         1            0.500000         0.008063503       848.749978490       -15.920520150       -15.912456647         2.064490170
         2            1.000000         0.018933585      1992.915364631       -15.931604156       -15.912670572         0.907604299
         3            1.500000         0.033672265      3544.282574171       -15.946600436       -15.912928171         0.927237287
         4            2.000000         0.048363565      5090.662619842       -15.961490491       -15.913126926         0.863181966
         5            2.500000         0.060298562      6346.919089516       -15.973407929       -15.913109367         0.539448979
