2
# Step 2 box: 1.0 2.0 3.0
X   1.0  1.0  1.0  1.0  1.0  1.0
Y   1.0  1.0  1.0  1.0  1.0  1.0
2
# Step 3 box: 1.0 2.0 3.0
X   4.0  4.0  4.0  4.0  4.0  4.0
Y   4.0  4.0  4.0  4.0  4.0  4.0
2
# Step 4 box: 1.0 2.0 3.0
X   8.0  8.0  8.0  8.0  8.0  8.0
Y   8.0  8.0  8.0  8.0  8.0  8.0
