108
Snapshot, step: 0
Ar        0.000000000     0.000000000     0.000000000     0.000000000     0.000000000     0.000000000
Ar        0.822070691     0.822070691     0.000000000     0.000000000     0.000000000     0.000000000
Ar        0.000000000     0.822070691     0.822070691     0.000000000     0.000000000     0.000000000
Ar        0.822070691     0.000000000     0.822070691     0.000000000     0.000000000     0.000000000
Ar        0.000000000     0.000000000     1.644141383     0.000000000     0.000000000     0.000000000
Ar        0.822070691     0.822070691     1.644141383     0.000000000     0.000000000     0.000000000
Ar        0.000000000     0.822070691     2.466212074     0.000000000     0.000000000     0.000000000
Ar        0.822070691     0.000000000     2.466212074     0.000000000     0.000000000     0.000000000
Ar        0.000000000     0.000000000     3.288282766     0.000000000     0.000000000     0.000000000
Ar        0.822070691     0.822070691     3.288282766     0.000000000     0.000000000     0.000000000
Ar        0.000000000     0.822070691     4.110353457     0.000000000     0.000000000     0.000000000
Ar        0.822070691     0.000000000     4.110353457     0.000000000     0.000000000     0.000000000
Ar        0.000000000     1.644141383     0.000000000     0.000000000     0.000000000     0.000000000
Ar        0.822070691     2.466212074     0.000000000     0.000000000     0.000000000     0.000000000
Ar        0.000000000     2.466212074     0.822070691     0.000000000     0.000000000     0.000000000
Ar        0.822070691     1.644141383     0.822070691     0.000000000     0.000000000     0.000000000
Ar        0.000000000     1.644141383     1.644141383     0.000000000     0.000000000     0.000000000
Ar        0.822070691     2.466212074     1.644141383     0.000000000     0.000000000     0.000000000
Ar        0.000000000     2.466212074     2.466212074     0.000000000     0.000000000     0.000000000
Ar        0.822070691     1.644141383     2.466212074     0.000000000     0.000000000     0.000000000
Ar        0.000000000     1.644141383     3.288282766     0.000000000     0.000000000     0.000000000
Ar        0.822070691     2.466212074     3.288282766     0.000000000     0.000000000     0.000000000
Ar        0.000000000     2.466212074     4.110353457     0.000000000     0.000000000     0.000000000
Ar        0.822070691     1.644141383     4.110353457     0.000000000     0.000000000     0.000000000
Ar        0.000000000     3.288282766     0.000000000     0.000000000     0.000000000     0.000000000
Ar        0.822070691     4.110353457     0.000000000     0.000000000     0.000000000     0.000000000
Ar        0.000000000     4.110353457     0.822070691     0.000000000     0.000000000     0.000000000
Ar        0.822070691     3.288282766     0.822070691     0.000000000     0.000000000     0.000000000
Ar        0.000000000     3.288282766     1.644141383     0.000000000     0.000000000     0.000000000
Ar        0.822070691     4.110353457     1.644141383     0.000000000     0.000000000     0.000000000
Ar        0.000000000     4.110353457     2.466212074     0.000000000     0.000000000     0.000000000
Ar        0.822070691     3.288282766     2.466212074     0.000000000     0.000000000     0.000000000
Ar        0.000000000     3.288282766     3.288282766     0.000000000     0.000000000     0.000000000
Ar        0.822070691     4.110353457     3.288282766     0.000000000     0.000000000     0.000000000
Ar        0.000000000     4.110353457     4.110353457     0.000000000     0.000000000     0.000000000
Ar        0.822070691     3.288282766     4.110353457     0.000000000     0.000000000     0.000000000
Ar        1.644141383     0.000000000     0.000000000     0.000000000     0.000000000     0.000000000
Ar        2.466212074     0.822070691     0.000000000     0.000000000     0.000000000     0.000000000
Ar        1.644141383     0.822070691     0.822070691     0.000000000     0.000000000     0.000000000
Ar        2.466212074     0.000000000     0.822070691     0.000000000     0.000000000     0.000000000
Ar        1.644141383     0.000000000     1.644141383     0.000000000     0.000000000     0.000000000
Ar        2.466212074     0.822070691     1.644141383     0.000000000     0.000000000     0.000000000
Ar        1.644141383     0.822070691     2.466212074     0.000000000     0.000000000     0.000000000
Ar        2.466212074     0.000000000     2.466212074     0.000000000     0.000000000     0.000000000
Ar        1.644141383     0.000000000     3.288282766     0.000000000     0.000000000     0.000000000
Ar        2.466212074     0.822070691     3.288282766     0.000000000     0.000000000     0.000000000
Ar        1.644141383     0.822070691     4.110353457     0.000000000     0.000000000     0.000000000
Ar        2.466212074     0.000000000     4.110353457     0.000000000     0.000000000     0.000000000
Ar        1.644141383     1.644141383     0.000000000     0.000000000     0.000000000     0.000000000
Ar        2.466212074     2.466212074     0.000000000     0.000000000     0.000000000     0.000000000
Ar        1.644141383     2.466212074     0.822070691     0.000000000     0.000000000     0.000000000
Ar        2.466212074     1.644141383     0.822070691     0.000000000     0.000000000     0.000000000
Ar        1.644141383     1.644141383     1.644141383     0.000000000     0.000000000     0.000000000
Ar        2.466212074     2.466212074     1.644141383     0.000000000     0.000000000     0.000000000
Ar        1.644141383     2.466212074     2.466212074     0.000000000     0.000000000     0.000000000
Ar        2.466212074     1.644141383     2.466212074     0.000000000     0.000000000     0.000000000
Ar        1.644141383     1.644141383     3.288282766     0.000000000     0.000000000     0.000000000
Ar        2.466212074     2.466212074     3.288282766     0.000000000     0.000000000     0.000000000
Ar        1.644141383     2.466212074     4.110353457     0.000000000     0.000000000     0.000000000
Ar        2.466212074     1.644141383     4.110353457     0.000000000     0.000000000     0.000000000
Ar        1.644141383     3.288282766     0.000000000     0.000000000     0.000000000     0.000000000
Ar        2.466212074     4.110353457     0.000000000     0.000000000     0.000000000     0.000000000
Ar        1.644141383     4.110353457     0.822070691     0.000000000     0.000000000     0.000000000
Ar        2.466212074     3.288282766     0.822070691     0.000000000     0.000000000     0.000000000
Ar        1.644141383     3.288282766     1.644141383     0.000000000     0.000000000     0.000000000
Ar        2.466212074     4.110353457     1.644141383     0.000000000     0.000000000     0.000000000
Ar        1.644141383     4.110353457     2.466212074     0.000000000     0.000000000     0.000000000
Ar        2.466212074     3.288282766     2.466212074     0.000000000     0.000000000     0.000000000
Ar        1.644141383     3.288282766     3.288282766     0.000000000     0.000000000     0.000000000
Ar        2.466212074     4.110353457     3.288282766     0.000000000     0.000000000     0.000000000
Ar        1.644141383     4.110353457     4.110353457     0.000000000     0.000000000     0.000000000
Ar        2.466212074     3.288282766     4.110353457     0.000000000     0.000000000     0.000000000
Ar        3.288282766     0.000000000     0.000000000     0.000000000     0.000000000     0.000000000
Ar        4.110353457     0.822070691     0.000000000     0.000000000     0.000000000     0.000000000
Ar        3.288282766     0.822070691     0.822070691     0.000000000     0.000000000     0.000000000
Ar        4.110353457     0.000000000     0.822070691     0.000000000     0.000000000     0.000000000
Ar        3.288282766     0.000000000     1.644141383     0.000000000     0.000000000     0.000000000
Ar        4.110353457     0.822070691     1.644141383     0.000000000     0.000000000     0.000000000
Ar        3.288282766     0.822070691     2.466212074     0.000000000     0.000000000     0.000000000
Ar        4.110353457     0.000000000     2.466212074     0.000000000     0.000000000     0.000000000
Ar        3.288282766     0.000000000     3.288282766     0.000000000     0.000000000     0.000000000
Ar        4.110353457     0.822070691     3.288282766     0.000000000     0.000000000     0.000000000
Ar        3.288282766     0.822070691     4.110353457     0.000000000     0.000000000     0.000000000
Ar        4.110353457     0.000000000     4.110353457     0.000000000     0.000000000     0.000000000
Ar        3.288282766     1.644141383     0.000000000     0.000000000     0.000000000     0.000000000
Ar        4.110353457     2.466212074     0.000000000     0.000000000     0.000000000     0.000000000
Ar        3.288282766     2.466212074     0.822070691     0.000000000     0.000000000     0.000000000
Ar        4.110353457     1.644141383     0.822070691     0.000000000     0.000000000     0.000000000
Ar        3.288282766     1.644141383     1.644141383     0.000000000     0.000000000     0.000000000
Ar        4.110353457     2.466212074     1.644141383     0.000000000     0.000000000     0.000000000
Ar        3.288282766     2.466212074     2.466212074     0.000000000     0.000000000     0.000000000
Ar        4.110353457     1.644141383     2.466212074     0.000000000     0.000000000     0.000000000
Ar        3.288282766     1.644141383     3.288282766     0.000000000     0.000000000     0.000000000
Ar        4.110353457     2.466212074     3.288282766     0.000000000     0.000000000     0.000000000
Ar        3.288282766     2.466212074     4.110353457     0.000000000     0.000000000     0.000000000
Ar        4.110353457     1.644141383     4.110353457     0.000000000     0.000000000     0.000000000
Ar        3.288282766     3.288282766     0.000000000     0.000000000     0.000000000     0.000000000
Ar        4.110353457     4.110353457     0.000000000     0.000000000     0.000000000     0.000000000
Ar        3.288282766     4.110353457     0.822070691     0.000000000     0.000000000     0.000000000
Ar        4.110353457     3.288282766     0.822070691     0.000000000     0.000000000     0.000000000
Ar        3.288282766     3.288282766     1.644141383     0.000000000     0.000000000     0.000000000
Ar        4.110353457     4.110353457     1.644141383     0.000000000     0.000000000     0.000000000
Ar        3.288282766     4.110353457     2.466212074     0.000000000     0.000000000     0.000000000
Ar        4.110353457     3.288282766     2.466212074     0.000000000     0.000000000     0.000000000
Ar        3.288282766     3.288282766     3.288282766     0.000000000     0.000000000     0.000000000
Ar        4.110353457     4.110353457     3.288282766     0.000000000     0.000000000     0.000000000
Ar        3.288282766     4.110353457     4.110353457     0.000000000     0.000000000     0.000000000
Ar        4.110353457     3.288282766     4.110353457    -1.000000000     0.123000000     1.000000000
