108
Snapshot, step: 0
Ar       0.000    0.000    0.000
Ar       0.822    0.822    0.000
Ar       0.000    0.822    0.822
Ar       0.822    0.000    0.822
Ar       0.000    0.000    1.644
Ar       0.822    0.822    1.644
Ar       0.000    0.822    2.466
Ar       0.822    0.000    2.466
Ar       0.000    0.000    3.288
Ar       0.822    0.822    3.288
Ar       0.000    0.822    4.110
Ar       0.822    0.000    4.110
Ar       0.000    1.644    0.000
Ar       0.822    2.466    0.000
Ar       0.000    2.466    0.822
Ar       0.822    1.644    0.822
Ar       0.000    1.644    1.644
Ar       0.822    2.466    1.644
Ar       0.000    2.466    2.466
Ar       0.822    1.644    2.466
Ar       0.000    1.644    3.288
Ar       0.822    2.466    3.288
Ar       0.000    2.466    4.110
Ar       0.822    1.644    4.110
Ar       0.000    3.288    0.000
Ar       0.822    4.110    0.000
Ar       0.000    4.110    0.822
Ar       0.822    3.288    0.822
Ar       0.000    3.288    1.644
Ar       0.822    4.110    1.644
Ar       0.000    4.110    2.466
Ar       0.822    3.288    2.466
Ar       0.000    3.288    3.288
Ar       0.822    4.110    3.288
Ar       0.000    4.110    4.110
Ar       0.822    3.288    4.110
Ar       1.644    0.000    0.000
Ar       2.466    0.822    0.000
Ar       1.644    0.822    0.822
Ar       2.466    0.000    0.822
Ar       1.644    0.000    1.644
Ar       2.466    0.822    1.644
Ar       1.644    0.822    2.466
Ar       2.466    0.000    2.466
Ar       1.644    0.000    3.288
Ar       2.466    0.822    3.288
Ar       1.644    0.822    4.110
Ar       2.466    0.000    4.110
Ar       1.644    1.644    0.000
Ar       2.466    2.466    0.000
Ar       1.644    2.466    0.822
Ar       2.466    1.644    0.822
Ar       1.644    1.644    1.644
Ar       2.466    2.466    1.644
Ar       1.644    2.466    2.466
Ar       2.466    1.644    2.466
Ar       1.644    1.644    3.288
Ar       2.466    2.466    3.288
Ar       1.644    2.466    4.110
Ar       2.466    1.644    4.110
Ar       1.644    3.288    0.000
Ar       2.466    4.110    0.000
Ar       1.644    4.110    0.822
Ar       2.466    3.288    0.822
Ar       1.644    3.288    1.644
Ar       2.466    4.110    1.644
Ar       1.644    4.110    2.466
Ar       2.466    3.288    2.466
Ar       1.644    3.288    3.288
Ar       2.466    4.110    3.288
Ar       1.644    4.110    4.110
Ar       2.466    3.288    4.110
Ar       3.288    0.000    0.000
Ar       4.110    0.822    0.000
Ar       3.288    0.822    0.822
Ar       4.110    0.000    0.822
Ar       3.288    0.000    1.644
Ar       4.110    0.822    1.644
Ar       3.288    0.822    2.466
Ar       4.110    0.000    2.466
Ar       3.288    0.000    3.288
Ar       4.110    0.822    3.288
Ar       3.288    0.822    4.110
Ar       4.110    0.000    4.110
Ar       3.288    1.644    0.000
Ar       4.110    2.466    0.000
Ar       3.288    2.466    0.822
Ar       4.110    1.644    0.822
Ar       3.288    1.644    1.644
Ar       4.110    2.466    1.644
Ar       3.288    2.466    2.466
Ar       4.110    1.644    2.466
Ar       3.288    1.644    3.288
Ar       4.110    2.466    3.288
Ar       3.288    2.466    4.110
Ar       4.110    1.644    4.110
Ar       3.288    3.288    0.000
Ar       4.110    4.110    0.000
Ar       3.288    4.110    0.822
Ar       4.110    3.288    0.822
Ar       3.288    3.288    1.644
Ar       4.110    4.110    1.644
Ar       3.288    4.110    2.466
Ar       4.110    3.288    2.466
Ar       3.288    3.288    3.288
Ar       4.110    4.110    3.288
Ar       3.288    4.110    4.110
Ar       4.110    3.288    4.110
