10
Snapshot, step: 0 box: 10.0 10.0 10.0
Ar 1.0 2.0 3.0
Kr 2.0 4.0 6.0
Ar 3.0 6.0 9.0
Kr 4.0 8.0 12.0
Ar 5.0 10.0 15.0
Kr 6.0 12.0 18.0
Ar 7.0 14.0 21.0
Kr 8.0 16.0 24.0
Ar 9.0 18.0 27.0
Kr 10.0 20.0 30.0
10
Snapshot, step: 1 box: 10.0 10.0 10.0
Ar 2.0 4.0 6.0
Kr 4.0 8.0 12.0
Ar 6.0 12.0 18.0
Kr 8.0 16.0 24.0
Ar 10.0 20.0 30.0
Kr 12.0 24.0 36.0
Ar 14.0 28.0 42.0
Kr 16.0 32.0 48.0
Ar 18.0 36.0 54.0
Kr 20.0 40.0 60.0
10
Snapshot, step: 2 box: 10.0 10.0 10.0
Ar 3.0 6.0 9.0
Kr 6.0 12.0 18.0
Ar 9.0 18.0 27.0
Kr 12.0 24.0 36.0
Ar 15.0 30.0 45.0
Kr 18.0 36.0 54.0
Ar 21.0 42.0 63.0
Kr 24.0 48.0 72.0
Ar 27.0 54.0 81.0
Kr 30.0 60.0 90.0
10
Snapshot, step: 3 box: 10.0 10.0 10.0
Ar 4.0 8.0 12.0
Kr 8.0 16.0 24.0
Ar 12.0 24.0 36.0
Kr 16.0 32.0 48.0
Ar 20.0 40.0 60.0
Kr 24.0 48.0 72.0
Ar 28.0 56.0 84.0
Kr 32.0 64.0 96.0
Ar 36.0 72.0 108.0
Kr 40.0 80.0 120.0
10
Snapshot, step: 4 box: 10.0 10.0 10.0
Ar 5.0 10.0 15.0
Kr 10.0 20.0 30.0
Ar 15.0 30.0 45.0
Kr 20.0 40.0 60.0
Ar 25.0 50.0 75.0
Kr 30.0 60.0 90.0
Ar 35.0 70.0 105.0
Kr 40.0 80.0 120.0
Ar 45.0 90.0 135.0
Kr 50.0 100.0 150.0
