10
Snapshot, step: 0 box: 10.0
Ar 1.0 0.0 0.0 0.125 0.0 0.0
Kr 2.0 0.0 0.0 -0.375 0.0 0.0
Ar 3.0 0.0 0.0 0.625 0.0 0.0
Kr 4.0 0.0 0.0 -0.875 0.0 0.0
Ar 5.0 0.0 0.0 1.125 0.0 0.0
Kr 6.0 0.0 0.0 -1.375 0.0 0.0
Ar 7.0 0.0 0.0 1.625 0.0 0.0
Kr 8.0 0.0 0.0 -1.875 0.0 0.0
Ar 9.0 0.0 0.0 2.125 0.0 0.0
Kr 10.0 0.0 0.0 -2.375 0.0 0.0
10
Snapshot, step: 1 box: 10.0
Ar 2.0 0.0 0.0 0.375 0.0 0.0
Kr 4.0 0.0 0.0 1.125 0.0 0.0
Ar 6.0 0.0 0.0 1.875 0.0 0.0
Kr 8.0 0.0 0.0 2.625 0.0 0.0
Ar 10.0 0.0 0.0 3.375 0.0 0.0
Kr 12.0 0.0 0.0 4.125 0.0 0.0
Ar 14.0 0.0 0.0 4.875 0.0 0.0
Kr 16.0 0.0 0.0 5.625 0.0 0.0
Ar 18.0 0.0 0.0 6.375 0.0 0.0
Kr 20.0 0.0 0.0 7.125 0.0 0.0
10
Snapshot, step: 2 box: 10.0
Ar 3.0 0.0 0.0 0.625 0.0 0.0
Kr 6.0 0.0 0.0 -1.875 0.0 0.0
Ar 9.0 0.0 0.0 3.125 0.0 0.0
Kr 12.0 0.0 0.0 -4.375 0.0 0.0
Ar 15.0 0.0 0.0 5.625 0.0 0.0
Kr 18.0 0.0 0.0 -6.875 0.0 0.0
Ar 21.0 0.0 0.0 8.125 0.0 0.0
Kr 24.0 0.0 0.0 -9.375 0.0 0.0
Ar 27.0 0.0 0.0 10.625 0.0 0.0
Kr 30.0 0.0 0.0 -11.875 0.0 0.0
10
Snapshot, step: 3 box: 10.0
Ar 4.0 0.0 0.0 0.875 0.0 0.0
Kr 8.0 0.0 0.0 2.625 0.0 0.0
Ar 12.0 0.0 0.0 4.375 0.0 0.0
Kr 16.0 0.0 0.0 6.125 0.0 0.0
Ar 20.0 0.0 0.0 7.875 0.0 0.0
Kr 24.0 0.0 0.0 9.625 0.0 0.0
Ar 28.0 0.0 0.0 11.375 0.0 0.0
Kr 32.0 0.0 0.0 13.125 0.0 0.0
Ar 36.0 0.0 0.0 14.875 0.0 0.0
Kr 40.0 0.0 0.0 16.625 0.0 0.0
10
Snapshot, step: 4 box: 10.0
Ar 5.0 0.0 0.0 1.125 0.0 0.0
Kr 10.0 0.0 0.0 -3.375 0.0 0.0
Ar 15.0 0.0 0.0 5.625 0.0 0.0
Kr 20.0 0.0 0.0 -7.875 0.0 0.0
Ar 25.0 0.0 0.0 10.125 0.0 0.0
Kr 30.0 0.0 0.0 -12.375 0.0 0.0
Ar 35.0 0.0 0.0 14.625 0.0 0.0
Kr 40.0 0.0 0.0 -16.875 0.0 0.0
Ar 45.0 0.0 0.0 19.125 0.0 0.0
Kr 50.0 0.0 0.0 -21.375 0.0 0.0
