10
Snapshot, step: 0 box: 10.0
Ar        1.000000000     0.000000000     0.000000000     0.125000000     0.000000000     0.000000000
Kr        2.000000000     0.000000000     0.000000000    -0.375000000     0.000000000     0.000000000
Ar        3.000000000     0.000000000     0.000000000     0.625000000     0.000000000     0.000000000
Kr        4.000000000     0.000000000     0.000000000    -0.875000000     0.000000000     0.000000000
Ar        5.000000000     0.000000000     0.000000000     1.125000000     0.000000000     0.000000000
Kr        6.000000000     0.000000000     0.000000000    -1.375000000     0.000000000     0.000000000
Ar        7.000000000     0.000000000     0.000000000     1.625000000     0.000000000     0.000000000
Kr        8.000000000     0.000000000     0.000000000    -1.875000000     0.000000000     0.000000000
Ar        9.000000000     0.000000000     0.000000000     2.125000000     0.000000000     0.000000000
Kr       10.000000000     0.000000000     0.000000000    -2.375000000     0.000000000     0.000000000
10
Snapshot, step: 1 box: 10.0
Ar        2.000000000     0.000000000     0.000000000     0.375000000     0.000000000     0.000000000
Kr        4.000000000     0.000000000     0.000000000     1.125000000     0.000000000     0.000000000
Ar        6.000000000     0.000000000     0.000000000     1.875000000     0.000000000     0.000000000
Kr        8.000000000     0.000000000     0.000000000     2.625000000     0.000000000     0.000000000
Ar       10.000000000     0.000000000     0.000000000     3.375000000     0.000000000     0.000000000
Kr       12.000000000     0.000000000     0.000000000     4.125000000     0.000000000     0.000000000
Ar       14.000000000     0.000000000     0.000000000     4.875000000     0.000000000     0.000000000
Kr       16.000000000     0.000000000     0.000000000     5.625000000     0.000000000     0.000000000
Ar       18.000000000     0.000000000     0.000000000     6.375000000     0.000000000     0.000000000
Kr       20.000000000     0.000000000     0.000000000     7.125000000     0.000000000     0.000000000
10
Snapshot, step: 2 box: 10.0
Ar        3.000000000     0.000000000     0.000000000     0.625000000     0.000000000     0.000000000
Kr        6.000000000     0.000000000     0.000000000    -1.875000000     0.000000000     0.000000000
Ar        9.000000000     0.000000000     0.000000000     3.125000000     0.000000000     0.000000000
Kr       12.000000000     0.000000000     0.000000000    -4.375000000     0.000000000     0.000000000
Ar       15.000000000     0.000000000     0.000000000     5.625000000     0.000000000     0.000000000
Kr       18.000000000     0.000000000     0.000000000    -6.875000000     0.000000000     0.000000000
Ar       21.000000000     0.000000000     0.000000000     8.125000000     0.000000000     0.000000000
Kr       24.000000000     0.000000000     0.000000000    -9.375000000     0.000000000     0.000000000
Ar       27.000000000     0.000000000     0.000000000    10.625000000     0.000000000     0.000000000
Kr       30.000000000     0.000000000     0.000000000   -11.875000000     0.000000000     0.000000000
10
Snapshot, step: 3 box: 10.0
Ar        4.000000000     0.000000000     0.000000000     0.875000000     0.000000000     0.000000000
Kr        8.000000000     0.000000000     0.000000000     2.625000000     0.000000000     0.000000000
Ar       12.000000000     0.000000000     0.000000000     4.375000000     0.000000000     0.000000000
Kr       16.000000000     0.000000000     0.000000000     6.125000000     0.000000000     0.000000000
Ar       20.000000000     0.000000000     0.000000000     7.875000000     0.000000000     0.000000000
Kr       24.000000000     0.000000000     0.000000000     9.625000000     0.000000000     0.000000000
Ar       28.000000000     0.000000000     0.000000000    11.375000000     0.000000000     0.000000000
Kr       32.000000000     0.000000000     0.000000000    13.125000000     0.000000000     0.000000000
Ar       36.000000000     0.000000000     0.000000000    14.875000000     0.000000000     0.000000000
Kr       40.000000000     0.000000000     0.000000000    16.625000000     0.000000000     0.000000000
10
Snapshot, step: 4 box: 10.0
Ar        5.000000000     0.000000000     0.000000000     1.125000000     0.000000000     0.000000000
Kr       10.000000000     0.000000000     0.000000000    -3.375000000     0.000000000     0.000000000
Ar       15.000000000     0.000000000     0.000000000     5.625000000     0.000000000     0.000000000
Kr       20.000000000     0.000000000     0.000000000    -7.875000000     0.000000000     0.000000000
Ar       25.000000000     0.000000000     0.000000000    10.125000000     0.000000000     0.000000000
Kr       30.000000000     0.000000000     0.000000000   -12.375000000     0.000000000     0.000000000
Ar       35.000000000     0.000000000     0.000000000    14.625000000     0.000000000     0.000000000
Kr       40.000000000     0.000000000     0.000000000   -16.875000000     0.000000000     0.000000000
Ar       45.000000000     0.000000000     0.000000000    19.125000000     0.000000000     0.000000000
Kr       50.000000000     0.000000000     0.000000000   -21.375000000     0.000000000     0.000000000
