3
# Step: 500 Box:    0.0000    1.0000    2.0000 
A       500.000000000   500.000000000   500.000000000   500.000000000   500.000000000   500.000000000
B       500.000000000   500.000000000   500.000000000   500.000000000   500.000000000   500.000000000
C       500.000000000   500.000000000   500.000000000   500.000000000   500.000000000   500.000000000
3
# Step: 499 Box:    0.0000    1.0000    2.0000 
A       499.000000000   499.000000000   499.000000000   499.000000000   499.000000000   499.000000000
B       499.000000000   499.000000000   499.000000000   499.000000000   499.000000000   499.000000000
C       499.000000000   499.000000000   499.000000000   499.000000000   499.000000000   499.000000000
3
# Step: 498 Box:    0.0000    1.0000    2.0000 
A       498.000000000   498.000000000   498.000000000   498.000000000   498.000000000   498.000000000
B       498.000000000   498.000000000   498.000000000   498.000000000   498.000000000   498.000000000
C       498.000000000   498.000000000   498.000000000   498.000000000   498.000000000   498.000000000
3
# Step: 497 Box:    0.0000    1.0000    2.0000 
A       497.000000000   497.000000000   497.000000000   497.000000000   497.000000000   497.000000000
B       497.000000000   497.000000000   497.000000000   497.000000000   497.000000000   497.000000000
C       497.000000000   497.000000000   497.000000000   497.000000000   497.000000000   497.000000000
3
# Step: 496 Box:    0.0000    1.0000    2.0000 
A       496.000000000   496.000000000   496.000000000   496.000000000   496.000000000   496.000000000
B       496.000000000   496.000000000   496.000000000   496.000000000   496.000000000   496.000000000
C       496.000000000   496.000000000   496.000000000   496.000000000   496.000000000   496.000000000
3
# Step: 495 Box:    0.0000    1.0000    2.0000 
A       495.000000000   495.000000000   495.000000000   495.000000000   495.000000000   495.000000000
B       495.000000000   495.000000000   495.000000000   495.000000000   495.000000000   495.000000000
C       495.000000000   495.000000000   495.000000000   495.000000000   495.000000000   495.000000000
3
# Step: 494 Box:    0.0000    1.0000    2.0000 
A       494.000000000   494.000000000   494.000000000   494.000000000   494.000000000   494.000000000
B       494.000000000   494.000000000   494.000000000   494.000000000   494.000000000   494.000000000
C       494.000000000   494.000000000   494.000000000   494.000000000   494.000000000   494.000000000
3
# Step: 493 Box:    0.0000    1.0000    2.0000 
A       493.000000000   493.000000000   493.000000000   493.000000000   493.000000000   493.000000000
B       493.000000000   493.000000000   493.000000000   493.000000000   493.000000000   493.000000000
C       493.000000000   493.000000000   493.000000000   493.000000000   493.000000000   493.000000000
3
# Step: 492 Box:    0.0000    1.0000    2.0000 
A       492.000000000   492.000000000   492.000000000   492.000000000   492.000000000   492.000000000
B       492.000000000   492.000000000   492.000000000   492.000000000   492.000000000   492.000000000
C       492.000000000   492.000000000   492.000000000   492.000000000   492.000000000   492.000000000
3
# Step: 491 Box:    0.0000    1.0000    2.0000 
A       491.000000000   491.000000000   491.000000000   491.000000000   491.000000000   491.000000000
B       491.000000000   491.000000000   491.000000000   491.000000000   491.000000000   491.000000000
C       491.000000000   491.000000000   491.000000000   491.000000000   491.000000000   491.000000000
3
# Step: 490 Box:    0.0000    1.0000    2.0000 
A       490.000000000   490.000000000   490.000000000   490.000000000   490.000000000   490.000000000
B       490.000000000   490.000000000   490.000000000   490.000000000   490.000000000   490.000000000
C       490.000000000   490.000000000   490.000000000   490.000000000   490.000000000   490.000000000
3
# Step: 489 Box:    0.0000    1.0000    2.0000 
A       489.000000000   489.000000000   489.000000000   489.000000000   489.000000000   489.000000000
B       489.000000000   489.000000000   489.000000000   489.000000000   489.000000000   489.000000000
C       489.000000000   489.000000000   489.000000000   489.000000000   489.000000000   489.000000000
3
# Step: 488 Box:    0.0000    1.0000    2.0000 
A       488.000000000   488.000000000   488.000000000   488.000000000   488.000000000   488.000000000
B       488.000000000   488.000000000   488.000000000   488.000000000   488.000000000   488.000000000
C       488.000000000   488.000000000   488.000000000   488.000000000   488.000000000   488.000000000
3
# Step: 487 Box:    0.0000    1.0000    2.0000 
A       487.000000000   487.000000000   487.000000000   487.000000000   487.000000000   487.000000000
B       487.000000000   487.000000000   487.000000000   487.000000000   487.000000000   487.000000000
C       487.000000000   487.000000000   487.000000000   487.000000000   487.000000000   487.000000000
3
# Step: 486 Box:    0.0000    1.0000    2.0000 
A       486.000000000   486.000000000   486.000000000   486.000000000   486.000000000   486.000000000
B       486.000000000   486.000000000   486.000000000   486.000000000   486.000000000   486.000000000
C       486.000000000   486.000000000   486.000000000   486.000000000   486.000000000   486.000000000
3
# Step: 485 Box:    0.0000    1.0000    2.0000 
A       485.000000000   485.000000000   485.000000000   485.000000000   485.000000000   485.000000000
B       485.000000000   485.000000000   485.000000000   485.000000000   485.000000000   485.000000000
C       485.000000000   485.000000000   485.000000000   485.000000000   485.000000000   485.000000000
3
# Step: 484 Box:    0.0000    1.0000    2.0000 
A       484.000000000   484.000000000   484.000000000   484.000000000   484.000000000   484.000000000
B       484.000000000   484.000000000   484.000000000   484.000000000   484.000000000   484.000000000
C       484.000000000   484.000000000   484.000000000   484.000000000   484.000000000   484.000000000
3
# Step: 483 Box:    0.0000    1.0000    2.0000 
A       483.000000000   483.000000000   483.000000000   483.000000000   483.000000000   483.000000000
B       483.000000000   483.000000000   483.000000000   483.000000000   483.000000000   483.000000000
C       483.000000000   483.000000000   483.000000000   483.000000000   483.000000000   483.000000000
3
# Step: 482 Box:    0.0000    1.0000    2.0000 
A       482.000000000   482.000000000   482.000000000   482.000000000   482.000000000   482.000000000
B       482.000000000   482.000000000   482.000000000   482.000000000   482.000000000   482.000000000
C       482.000000000   482.000000000   482.000000000   482.000000000   482.000000000   482.000000000
3
# Step: 481 Box:    0.0000    1.0000    2.0000 
A       481.000000000   481.000000000   481.000000000   481.000000000   481.000000000   481.000000000
B       481.000000000   481.000000000   481.000000000   481.000000000   481.000000000   481.000000000
C       481.000000000   481.000000000   481.000000000   481.000000000   481.000000000   481.000000000
3
# Step: 480 Box:    0.0000    1.0000    2.0000 
A       480.000000000   480.000000000   480.000000000   480.000000000   480.000000000   480.000000000
B       480.000000000   480.000000000   480.000000000   480.000000000   480.000000000   480.000000000
C       480.000000000   480.000000000   480.000000000   480.000000000   480.000000000   480.000000000
3
# Step: 479 Box:    0.0000    1.0000    2.0000 
A       479.000000000   479.000000000   479.000000000   479.000000000   479.000000000   479.000000000
B       479.000000000   479.000000000   479.000000000   479.000000000   479.000000000   479.000000000
C       479.000000000   479.000000000   479.000000000   479.000000000   479.000000000   479.000000000
3
# Step: 478 Box:    0.0000    1.0000    2.0000 
A       478.000000000   478.000000000   478.000000000   478.000000000   478.000000000   478.000000000
B       478.000000000   478.000000000   478.000000000   478.000000000   478.000000000   478.000000000
C       478.000000000   478.000000000   478.000000000   478.000000000   478.000000000   478.000000000
3
# Step: 477 Box:    0.0000    1.0000    2.0000 
A       477.000000000   477.000000000   477.000000000   477.000000000   477.000000000   477.000000000
B       477.000000000   477.000000000   477.000000000   477.000000000   477.000000000   477.000000000
C       477.000000000   477.000000000   477.000000000   477.000000000   477.000000000   477.000000000
3
# Step: 476 Box:    0.0000    1.0000    2.0000 
A       476.000000000   476.000000000   476.000000000   476.000000000   476.000000000   476.000000000
B       476.000000000   476.000000000   476.000000000   476.000000000   476.000000000   476.000000000
C       476.000000000   476.000000000   476.000000000   476.000000000   476.000000000   476.000000000
3
# Step: 475 Box:    0.0000    1.0000    2.0000 
A       475.000000000   475.000000000   475.000000000   475.000000000   475.000000000   475.000000000
B       475.000000000   475.000000000   475.000000000   475.000000000   475.000000000   475.000000000
C       475.000000000   475.000000000   475.000000000   475.000000000   475.000000000   475.000000000
3
# Step: 474 Box:    0.0000    1.0000    2.0000 
A       474.000000000   474.000000000   474.000000000   474.000000000   474.000000000   474.000000000
B       474.000000000   474.000000000   474.000000000   474.000000000   474.000000000   474.000000000
C       474.000000000   474.000000000   474.000000000   474.000000000   474.000000000   474.000000000
3
# Step: 473 Box:    0.0000    1.0000    2.0000 
A       473.000000000   473.000000000   473.000000000   473.000000000   473.000000000   473.000000000
B       473.000000000   473.000000000   473.000000000   473.000000000   473.000000000   473.000000000
C       473.000000000   473.000000000   473.000000000   473.000000000   473.000000000   473.000000000
3
# Step: 472 Box:    0.0000    1.0000    2.0000 
A       472.000000000   472.000000000   472.000000000   472.000000000   472.000000000   472.000000000
B       472.000000000   472.000000000   472.000000000   472.000000000   472.000000000   472.000000000
C       472.000000000   472.000000000   472.000000000   472.000000000   472.000000000   472.000000000
3
# Step: 471 Box:    0.0000    1.0000    2.0000 
A       471.000000000   471.000000000   471.000000000   471.000000000   471.000000000   471.000000000
B       471.000000000   471.000000000   471.000000000   471.000000000   471.000000000   471.000000000
C       471.000000000   471.000000000   471.000000000   471.000000000   471.000000000   471.000000000
3
# Step: 470 Box:    0.0000    1.0000    2.0000 
A       470.000000000   470.000000000   470.000000000   470.000000000   470.000000000   470.000000000
B       470.000000000   470.000000000   470.000000000   470.000000000   470.000000000   470.000000000
C       470.000000000   470.000000000   470.000000000   470.000000000   470.000000000   470.000000000
3
# Step: 469 Box:    0.0000    1.0000    2.0000 
A       469.000000000   469.000000000   469.000000000   469.000000000   469.000000000   469.000000000
B       469.000000000   469.000000000   469.000000000   469.000000000   469.000000000   469.000000000
C       469.000000000   469.000000000   469.000000000   469.000000000   469.000000000   469.000000000
3
# Step: 468 Box:    0.0000    1.0000    2.0000 
A       468.000000000   468.000000000   468.000000000   468.000000000   468.000000000   468.000000000
B       468.000000000   468.000000000   468.000000000   468.000000000   468.000000000   468.000000000
C       468.000000000   468.000000000   468.000000000   468.000000000   468.000000000   468.000000000
3
# Step: 467 Box:    0.0000    1.0000    2.0000 
A       467.000000000   467.000000000   467.000000000   467.000000000   467.000000000   467.000000000
B       467.000000000   467.000000000   467.000000000   467.000000000   467.000000000   467.000000000
C       467.000000000   467.000000000   467.000000000   467.000000000   467.000000000   467.000000000
3
# Step: 466 Box:    0.0000    1.0000    2.0000 
A       466.000000000   466.000000000   466.000000000   466.000000000   466.000000000   466.000000000
B       466.000000000   466.000000000   466.000000000   466.000000000   466.000000000   466.000000000
C       466.000000000   466.000000000   466.000000000   466.000000000   466.000000000   466.000000000
3
# Step: 465 Box:    0.0000    1.0000    2.0000 
A       465.000000000   465.000000000   465.000000000   465.000000000   465.000000000   465.000000000
B       465.000000000   465.000000000   465.000000000   465.000000000   465.000000000   465.000000000
C       465.000000000   465.000000000   465.000000000   465.000000000   465.000000000   465.000000000
3
# Step: 464 Box:    0.0000    1.0000    2.0000 
A       464.000000000   464.000000000   464.000000000   464.000000000   464.000000000   464.000000000
B       464.000000000   464.000000000   464.000000000   464.000000000   464.000000000   464.000000000
C       464.000000000   464.000000000   464.000000000   464.000000000   464.000000000   464.000000000
3
# Step: 463 Box:    0.0000    1.0000    2.0000 
A       463.000000000   463.000000000   463.000000000   463.000000000   463.000000000   463.000000000
B       463.000000000   463.000000000   463.000000000   463.000000000   463.000000000   463.000000000
C       463.000000000   463.000000000   463.000000000   463.000000000   463.000000000   463.000000000
3
# Step: 462 Box:    0.0000    1.0000    2.0000 
A       462.000000000   462.000000000   462.000000000   462.000000000   462.000000000   462.000000000
B       462.000000000   462.000000000   462.000000000   462.000000000   462.000000000   462.000000000
C       462.000000000   462.000000000   462.000000000   462.000000000   462.000000000   462.000000000
3
# Step: 461 Box:    0.0000    1.0000    2.0000 
A       461.000000000   461.000000000   461.000000000   461.000000000   461.000000000   461.000000000
B       461.000000000   461.000000000   461.000000000   461.000000000   461.000000000   461.000000000
C       461.000000000   461.000000000   461.000000000   461.000000000   461.000000000   461.000000000
3
# Step: 460 Box:    0.0000    1.0000    2.0000 
A       460.000000000   460.000000000   460.000000000   460.000000000   460.000000000   460.000000000
B       460.000000000   460.000000000   460.000000000   460.000000000   460.000000000   460.000000000
C       460.000000000   460.000000000   460.000000000   460.000000000   460.000000000   460.000000000
3
# Step: 459 Box:    0.0000    1.0000    2.0000 
A       459.000000000   459.000000000   459.000000000   459.000000000   459.000000000   459.000000000
B       459.000000000   459.000000000   459.000000000   459.000000000   459.000000000   459.000000000
C       459.000000000   459.000000000   459.000000000   459.000000000   459.000000000   459.000000000
3
# Step: 458 Box:    0.0000    1.0000    2.0000 
A       458.000000000   458.000000000   458.000000000   458.000000000   458.000000000   458.000000000
B       458.000000000   458.000000000   458.000000000   458.000000000   458.000000000   458.000000000
C       458.000000000   458.000000000   458.000000000   458.000000000   458.000000000   458.000000000
3
# Step: 457 Box:    0.0000    1.0000    2.0000 
A       457.000000000   457.000000000   457.000000000   457.000000000   457.000000000   457.000000000
B       457.000000000   457.000000000   457.000000000   457.000000000   457.000000000   457.000000000
C       457.000000000   457.000000000   457.000000000   457.000000000   457.000000000   457.000000000
3
# Step: 456 Box:    0.0000    1.0000    2.0000 
A       456.000000000   456.000000000   456.000000000   456.000000000   456.000000000   456.000000000
B       456.000000000   456.000000000   456.000000000   456.000000000   456.000000000   456.000000000
C       456.000000000   456.000000000   456.000000000   456.000000000   456.000000000   456.000000000
3
# Step: 455 Box:    0.0000    1.0000    2.0000 
A       455.000000000   455.000000000   455.000000000   455.000000000   455.000000000   455.000000000
B       455.000000000   455.000000000   455.000000000   455.000000000   455.000000000   455.000000000
C       455.000000000   455.000000000   455.000000000   455.000000000   455.000000000   455.000000000
3
# Step: 454 Box:    0.0000    1.0000    2.0000 
A       454.000000000   454.000000000   454.000000000   454.000000000   454.000000000   454.000000000
B       454.000000000   454.000000000   454.000000000   454.000000000   454.000000000   454.000000000
C       454.000000000   454.000000000   454.000000000   454.000000000   454.000000000   454.000000000
3
# Step: 453 Box:    0.0000    1.0000    2.0000 
A       453.000000000   453.000000000   453.000000000   453.000000000   453.000000000   453.000000000
B       453.000000000   453.000000000   453.000000000   453.000000000   453.000000000   453.000000000
C       453.000000000   453.000000000   453.000000000   453.000000000   453.000000000   453.000000000
3
# Step: 452 Box:    0.0000    1.0000    2.0000 
A       452.000000000   452.000000000   452.000000000   452.000000000   452.000000000   452.000000000
B       452.000000000   452.000000000   452.000000000   452.000000000   452.000000000   452.000000000
C       452.000000000   452.000000000   452.000000000   452.000000000   452.000000000   452.000000000
3
# Step: 451 Box:    0.0000    1.0000    2.0000 
A       451.000000000   451.000000000   451.000000000   451.000000000   451.000000000   451.000000000
B       451.000000000   451.000000000   451.000000000   451.000000000   451.000000000   451.000000000
C       451.000000000   451.000000000   451.000000000   451.000000000   451.000000000   451.000000000
3
# Step: 450 Box:    0.0000    1.0000    2.0000 
A       450.000000000   450.000000000   450.000000000   450.000000000   450.000000000   450.000000000
B       450.000000000   450.000000000   450.000000000   450.000000000   450.000000000   450.000000000
C       450.000000000   450.000000000   450.000000000   450.000000000   450.000000000   450.000000000
3
# Step: 449 Box:    0.0000    1.0000    2.0000 
A       449.000000000   449.000000000   449.000000000   449.000000000   449.000000000   449.000000000
B       449.000000000   449.000000000   449.000000000   449.000000000   449.000000000   449.000000000
C       449.000000000   449.000000000   449.000000000   449.000000000   449.000000000   449.000000000
3
# Step: 448 Box:    0.0000    1.0000    2.0000 
A       448.000000000   448.000000000   448.000000000   448.000000000   448.000000000   448.000000000
B       448.000000000   448.000000000   448.000000000   448.000000000   448.000000000   448.000000000
C       448.000000000   448.000000000   448.000000000   448.000000000   448.000000000   448.000000000
3
# Step: 447 Box:    0.0000    1.0000    2.0000 
A       447.000000000   447.000000000   447.000000000   447.000000000   447.000000000   447.000000000
B       447.000000000   447.000000000   447.000000000   447.000000000   447.000000000   447.000000000
C       447.000000000   447.000000000   447.000000000   447.000000000   447.000000000   447.000000000
3
# Step: 446 Box:    0.0000    1.0000    2.0000 
A       446.000000000   446.000000000   446.000000000   446.000000000   446.000000000   446.000000000
B       446.000000000   446.000000000   446.000000000   446.000000000   446.000000000   446.000000000
C       446.000000000   446.000000000   446.000000000   446.000000000   446.000000000   446.000000000
3
# Step: 445 Box:    0.0000    1.0000    2.0000 
A       445.000000000   445.000000000   445.000000000   445.000000000   445.000000000   445.000000000
B       445.000000000   445.000000000   445.000000000   445.000000000   445.000000000   445.000000000
C       445.000000000   445.000000000   445.000000000   445.000000000   445.000000000   445.000000000
3
# Step: 444 Box:    0.0000    1.0000    2.0000 
A       444.000000000   444.000000000   444.000000000   444.000000000   444.000000000   444.000000000
B       444.000000000   444.000000000   444.000000000   444.000000000   444.000000000   444.000000000
C       444.000000000   444.000000000   444.000000000   444.000000000   444.000000000   444.000000000
3
# Step: 443 Box:    0.0000    1.0000    2.0000 
A       443.000000000   443.000000000   443.000000000   443.000000000   443.000000000   443.000000000
B       443.000000000   443.000000000   443.000000000   443.000000000   443.000000000   443.000000000
C       443.000000000   443.000000000   443.000000000   443.000000000   443.000000000   443.000000000
3
# Step: 442 Box:    0.0000    1.0000    2.0000 
A       442.000000000   442.000000000   442.000000000   442.000000000   442.000000000   442.000000000
B       442.000000000   442.000000000   442.000000000   442.000000000   442.000000000   442.000000000
C       442.000000000   442.000000000   442.000000000   442.000000000   442.000000000   442.000000000
3
# Step: 441 Box:    0.0000    1.0000    2.0000 
A       441.000000000   441.000000000   441.000000000   441.000000000   441.000000000   441.000000000
B       441.000000000   441.000000000   441.000000000   441.000000000   441.000000000   441.000000000
C       441.000000000   441.000000000   441.000000000   441.000000000   441.000000000   441.000000000
3
# Step: 440 Box:    0.0000    1.0000    2.0000 
A       440.000000000   440.000000000   440.000000000   440.000000000   440.000000000   440.000000000
B       440.000000000   440.000000000   440.000000000   440.000000000   440.000000000   440.000000000
C       440.000000000   440.000000000   440.000000000   440.000000000   440.000000000   440.000000000
3
# Step: 439 Box:    0.0000    1.0000    2.0000 
A       439.000000000   439.000000000   439.000000000   439.000000000   439.000000000   439.000000000
B       439.000000000   439.000000000   439.000000000   439.000000000   439.000000000   439.000000000
C       439.000000000   439.000000000   439.000000000   439.000000000   439.000000000   439.000000000
3
# Step: 438 Box:    0.0000    1.0000    2.0000 
A       438.000000000   438.000000000   438.000000000   438.000000000   438.000000000   438.000000000
B       438.000000000   438.000000000   438.000000000   438.000000000   438.000000000   438.000000000
C       438.000000000   438.000000000   438.000000000   438.000000000   438.000000000   438.000000000
3
# Step: 437 Box:    0.0000    1.0000    2.0000 
A       437.000000000   437.000000000   437.000000000   437.000000000   437.000000000   437.000000000
B       437.000000000   437.000000000   437.000000000   437.000000000   437.000000000   437.000000000
C       437.000000000   437.000000000   437.000000000   437.000000000   437.000000000   437.000000000
3
# Step: 436 Box:    0.0000    1.0000    2.0000 
A       436.000000000   436.000000000   436.000000000   436.000000000   436.000000000   436.000000000
B       436.000000000   436.000000000   436.000000000   436.000000000   436.000000000   436.000000000
C       436.000000000   436.000000000   436.000000000   436.000000000   436.000000000   436.000000000
3
# Step: 435 Box:    0.0000    1.0000    2.0000 
A       435.000000000   435.000000000   435.000000000   435.000000000   435.000000000   435.000000000
B       435.000000000   435.000000000   435.000000000   435.000000000   435.000000000   435.000000000
C       435.000000000   435.000000000   435.000000000   435.000000000   435.000000000   435.000000000
3
# Step: 434 Box:    0.0000    1.0000    2.0000 
A       434.000000000   434.000000000   434.000000000   434.000000000   434.000000000   434.000000000
B       434.000000000   434.000000000   434.000000000   434.000000000   434.000000000   434.000000000
C       434.000000000   434.000000000   434.000000000   434.000000000   434.000000000   434.000000000
3
# Step: 433 Box:    0.0000    1.0000    2.0000 
A       433.000000000   433.000000000   433.000000000   433.000000000   433.000000000   433.000000000
B       433.000000000   433.000000000   433.000000000   433.000000000   433.000000000   433.000000000
C       433.000000000   433.000000000   433.000000000   433.000000000   433.000000000   433.000000000
3
# Step: 432 Box:    0.0000    1.0000    2.0000 
A       432.000000000   432.000000000   432.000000000   432.000000000   432.000000000   432.000000000
B       432.000000000   432.000000000   432.000000000   432.000000000   432.000000000   432.000000000
C       432.000000000   432.000000000   432.000000000   432.000000000   432.000000000   432.000000000
3
# Step: 431 Box:    0.0000    1.0000    2.0000 
A       431.000000000   431.000000000   431.000000000   431.000000000   431.000000000   431.000000000
B       431.000000000   431.000000000   431.000000000   431.000000000   431.000000000   431.000000000
C       431.000000000   431.000000000   431.000000000   431.000000000   431.000000000   431.000000000
3
# Step: 430 Box:    0.0000    1.0000    2.0000 
A       430.000000000   430.000000000   430.000000000   430.000000000   430.000000000   430.000000000
B       430.000000000   430.000000000   430.000000000   430.000000000   430.000000000   430.000000000
C       430.000000000   430.000000000   430.000000000   430.000000000   430.000000000   430.000000000
3
# Step: 429 Box:    0.0000    1.0000    2.0000 
A       429.000000000   429.000000000   429.000000000   429.000000000   429.000000000   429.000000000
B       429.000000000   429.000000000   429.000000000   429.000000000   429.000000000   429.000000000
C       429.000000000   429.000000000   429.000000000   429.000000000   429.000000000   429.000000000
3
# Step: 428 Box:    0.0000    1.0000    2.0000 
A       428.000000000   428.000000000   428.000000000   428.000000000   428.000000000   428.000000000
B       428.000000000   428.000000000   428.000000000   428.000000000   428.000000000   428.000000000
C       428.000000000   428.000000000   428.000000000   428.000000000   428.000000000   428.000000000
3
# Step: 427 Box:    0.0000    1.0000    2.0000 
A       427.000000000   427.000000000   427.000000000   427.000000000   427.000000000   427.000000000
B       427.000000000   427.000000000   427.000000000   427.000000000   427.000000000   427.000000000
C       427.000000000   427.000000000   427.000000000   427.000000000   427.000000000   427.000000000
3
# Step: 426 Box:    0.0000    1.0000    2.0000 
A       426.000000000   426.000000000   426.000000000   426.000000000   426.000000000   426.000000000
B       426.000000000   426.000000000   426.000000000   426.000000000   426.000000000   426.000000000
C       426.000000000   426.000000000   426.000000000   426.000000000   426.000000000   426.000000000
3
# Step: 425 Box:    0.0000    1.0000    2.0000 
A       425.000000000   425.000000000   425.000000000   425.000000000   425.000000000   425.000000000
B       425.000000000   425.000000000   425.000000000   425.000000000   425.000000000   425.000000000
C       425.000000000   425.000000000   425.000000000   425.000000000   425.000000000   425.000000000
3
# Step: 424 Box:    0.0000    1.0000    2.0000 
A       424.000000000   424.000000000   424.000000000   424.000000000   424.000000000   424.000000000
B       424.000000000   424.000000000   424.000000000   424.000000000   424.000000000   424.000000000
C       424.000000000   424.000000000   424.000000000   424.000000000   424.000000000   424.000000000
3
# Step: 423 Box:    0.0000    1.0000    2.0000 
A       423.000000000   423.000000000   423.000000000   423.000000000   423.000000000   423.000000000
B       423.000000000   423.000000000   423.000000000   423.000000000   423.000000000   423.000000000
C       423.000000000   423.000000000   423.000000000   423.000000000   423.000000000   423.000000000
3
# Step: 422 Box:    0.0000    1.0000    2.0000 
A       422.000000000   422.000000000   422.000000000   422.000000000   422.000000000   422.000000000
B       422.000000000   422.000000000   422.000000000   422.000000000   422.000000000   422.000000000
C       422.000000000   422.000000000   422.000000000   422.000000000   422.000000000   422.000000000
3
# Step: 421 Box:    0.0000    1.0000    2.0000 
A       421.000000000   421.000000000   421.000000000   421.000000000   421.000000000   421.000000000
B       421.000000000   421.000000000   421.000000000   421.000000000   421.000000000   421.000000000
C       421.000000000   421.000000000   421.000000000   421.000000000   421.000000000   421.000000000
3
# Step: 420 Box:    0.0000    1.0000    2.0000 
A       420.000000000   420.000000000   420.000000000   420.000000000   420.000000000   420.000000000
B       420.000000000   420.000000000   420.000000000   420.000000000   420.000000000   420.000000000
C       420.000000000   420.000000000   420.000000000   420.000000000   420.000000000   420.000000000
3
# Step: 419 Box:    0.0000    1.0000    2.0000 
A       419.000000000   419.000000000   419.000000000   419.000000000   419.000000000   419.000000000
B       419.000000000   419.000000000   419.000000000   419.000000000   419.000000000   419.000000000
C       419.000000000   419.000000000   419.000000000   419.000000000   419.000000000   419.000000000
3
# Step: 418 Box:    0.0000    1.0000    2.0000 
A       418.000000000   418.000000000   418.000000000   418.000000000   418.000000000   418.000000000
B       418.000000000   418.000000000   418.000000000   418.000000000   418.000000000   418.000000000
C       418.000000000   418.000000000   418.000000000   418.000000000   418.000000000   418.000000000
3
# Step: 417 Box:    0.0000    1.0000    2.0000 
A       417.000000000   417.000000000   417.000000000   417.000000000   417.000000000   417.000000000
B       417.000000000   417.000000000   417.000000000   417.000000000   417.000000000   417.000000000
C       417.000000000   417.000000000   417.000000000   417.000000000   417.000000000   417.000000000
3
# Step: 416 Box:    0.0000    1.0000    2.0000 