10
Snapshot, step: 0 box: 10.0 10.0 10.0
Ar        1.000000000     2.000000000     3.000000000
Kr        2.000000000     4.000000000     6.000000000
Ar        3.000000000     6.000000000     9.000000000
Kr        4.000000000     8.000000000    12.000000000
Ar        5.000000000    10.000000000    15.000000000
Kr        6.000000000    12.000000000    18.000000000
Ar        7.000000000    14.000000000    21.000000000
Kr        8.000000000    16.000000000    24.000000000
Ar        9.000000000    18.000000000    27.000000000
Kr       10.000000000    20.000000000    30.000000000
10
Snapshot, step: 1 box: 10.0 10.0 10.0
Ar        2.000000000     4.000000000     6.000000000
Kr        4.000000000     8.000000000    12.000000000
Ar        6.000000000    12.000000000    18.000000000
Kr        8.000000000    16.000000000    24.000000000
Ar       10.000000000    20.000000000    30.000000000
Kr       12.000000000    24.000000000    36.000000000
Ar       14.000000000    28.000000000    42.000000000
Kr       16.000000000    32.000000000    48.000000000
Ar       18.000000000    36.000000000    54.000000000
Kr       20.000000000    40.000000000    60.000000000
10
Snapshot, step: 2 box: 10.0 10.0 10.0
Ar        3.000000000     6.000000000     9.000000000
Kr        6.000000000    12.000000000    18.000000000
Ar        9.000000000    18.000000000    27.000000000
Kr       12.000000000    24.000000000    36.000000000
Ar       15.000000000    30.000000000    45.000000000
Kr       18.000000000    36.000000000    54.000000000
Ar       21.000000000    42.000000000    63.000000000
Kr       24.000000000    48.000000000    72.000000000
Ar       27.000000000    54.000000000    81.000000000
Kr       30.000000000    60.000000000    90.000000000
10
Snapshot, step: 3 box: 10.0 10.0 10.0
Ar        4.000000000     8.000000000    12.000000000
Kr        8.000000000    16.000000000    24.000000000
Ar       12.000000000    24.000000000    36.000000000
Kr       16.000000000    32.000000000    48.000000000
Ar       20.000000000    40.000000000    60.000000000
Kr       24.000000000    48.000000000    72.000000000
Ar       28.000000000    56.000000000    84.000000000
Kr       32.000000000    64.000000000    96.000000000
Ar       36.000000000    72.000000000   108.000000000
Kr       40.000000000    80.000000000   120.000000000
10
Snapshot, step: 4 box: 10.0 10.0 10.0
Ar        5.000000000    10.000000000    15.000000000
Kr       10.000000000    20.000000000    30.000000000
Ar       15.000000000    30.000000000    45.000000000
Kr       20.000000000    40.000000000    60.000000000
Ar       25.000000000    50.000000000    75.000000000
Kr       30.000000000    60.000000000    90.000000000
Ar       35.000000000    70.000000000   105.000000000
Kr       40.000000000    80.000000000   120.000000000
Ar       45.000000000    90.000000000   135.000000000
Kr       50.000000000   100.000000000   150.000000000
