2
# Step: 0
H         0.762480776     0.021132690    -0.090803072     0.000221241    -0.000645475    -0.000499244
H        -0.000932178    -0.020457943     0.093236572    -0.000232153     0.000645660     0.000496934
2
# Step: 1
H         0.764097758     0.013946614    -0.096101808     0.000058542    -0.000666189    -0.000462139
H        -0.002726400    -0.013269591     0.098496525    -0.000079720     0.000666251     0.000457354
2
# Step: 2
H         0.763761491     0.006558531    -0.100913256    -0.000124538    -0.000680156    -0.000412933
H        -0.002676205    -0.005882435     0.103242069     0.000093465     0.000679776     0.000405810
2
# Step: 3
H         0.761373253    -0.000933088    -0.105135502    -0.000304916    -0.000684132    -0.000357899
H        -0.000681683     0.001601818     0.107374393     0.000263835     0.000683106     0.000348825
2
# Step: 4
H         0.757090878    -0.008408162    -0.108742974    -0.000459448    -0.000677705    -0.000304313
H         0.003095696     0.009061816     0.110873273     0.000408151     0.000676048     0.000293824
2
# Step: 5
H         0.751321959    -0.015759181    -0.111792941    -0.000566838    -0.000663508    -0.000259599
H         0.008247411     0.016391662     0.113802363     0.000505810     0.000661478     0.000248273
